.Version 10.4.0 of ABINIT
.(MPI version, prepared for a x86_64_darwin_gnu13.2 computer)

.Copyright (C) 1998-2024 ABINIT group .

------------- Echo of variables that govern the present computation ------------

 outvars: echo of selected default values
-   iomode0 =  0 , fftalg0 =312 , wfoptalg0 =  0

================================================================================
== DATASET  1 ==================================================================

 ITER STEP NUMBER     1
 ETOT  1  -7.8123456789012E+00 -7.812E+00  4.5E-04  3.2E-03

--- Removed: 6 SCF iterations ---

 ITER STEP NUMBER     8
 ETOT  8  -7.8341234567890E+00 -1.234E-08  2.1E-11  4.5E-09

 At SCF step    8       vres2   =  4.45E-09 < tolvrs=  1.00E-08 =>converged.

================================================================================

 Calculation completed.
.Delivered    0 WARNINGs and   0 COMMENTs to log file.
+Overall time at end (sec) :     cpu=          1.2  wall=          1.3
